Title: **.subckt banana a b
Date: Tue Aug  2 22:53:36  2022
Plotname: Transient Analysis
Flags: real
No. Variables: 34
No. Points: 0       
Variables:
